# vtk DataFile Version 3.0
Generated by MFEM
ASCII
DATASET UNSTRUCTURED_GRID
POINTS 364 double
-0.4 0.1 0.16666667
-0.29166667 0.125 0.16666667
-0.25 0.25 0.16666667
-0.34150635 0.25 0.16666667
-0.4 0.1 0.5
-0.29166667 0.125 0.5
-0.25 0.25 0.5
-0.34150635 0.25 0.5
-0.5 0 0.16666667
-0.33333333 0 0.16666667
-0.5 0 0.5
-0.33333333 0 0.5
-0.4330127 0.25 0.16666667
-0.4330127 0.25 0.5
-0.25 0.35980762 0.16666667
-0.125 0.375 0.16666667
-0.25 0.35980762 0.5
-0.125 0.375 0.5
-0.25 0.4330127 0.16666667
-0.25 0.4330127 0.5
0 0.5 0.16666667
0 0.5 0.5
-0.1 0.25 0.16666667
-0.125 0.125 0.16666667
-0.1 0.25 0.5
-0.125 0.125 0.5
0 0.25 0.16666667
0 0.25 0.5
0 0 0.16666667
0 0 0.5
-0.2 0.1 0.16666667
-0.2 0.1 0.5
-0.16666667 0 0.16666667
-0.16666667 0 0.5
-0.4 0.1 -0.16666667
-0.29166667 0.125 -0.16666667
-0.25 0.25 -0.16666667
-0.34150635 0.25 -0.16666667
-0.5 0 -0.16666667
-0.33333333 0 -0.16666667
-0.4330127 0.25 -0.16666667
-0.25 0.35980762 -0.16666667
-0.125 0.375 -0.16666667
-0.25 0.4330127 -0.16666667
0 0.5 -0.16666667
-0.1 0.25 -0.16666667
-0.125 0.125 -0.16666667
0 0.25 -0.16666667
0 0 -0.16666667
-0.2 0.1 -0.16666667
-0.16666667 0 -0.16666667
-0.4 0.1 -0.5
-0.29166667 0.125 -0.5
-0.25 0.25 -0.5
-0.34150635 0.25 -0.5
-0.5 0 -0.5
-0.33333333 0 -0.5
-0.4330127 0.25 -0.5
-0.25 0.35980762 -0.5
-0.125 0.375 -0.5
-0.25 0.4330127 -0.5
0 0.5 -0.5
-0.1 0.25 -0.5
-0.125 0.125 -0.5
0 0.25 -0.5
0 0 -0.5
-0.2 0.1 -0.5
-0.16666667 0 -0.5
0.1 0.1 0.16666667
0.20833333 0.125 0.16666667
0.25 0.25 0.16666667
0.125 0.25 0.16666667
0.1 0.1 0.5
0.20833333 0.125 0.5
0.25 0.25 0.5
0.125 0.25 0.5
0.16666667 0 0.16666667
0.16666667 0 0.5
0.1 0.4 0.16666667
0.25 0.34150635 0.16666667
0.1 0.4 0.5
0.25 0.34150635 0.5
0.25 0.4330127 0.16666667
0.25 0.4330127 0.5
0.35980762 0.25 0.16666667
0.375 0.125 0.16666667
0.35980762 0.25 0.5
0.375 0.125 0.5
0.4330127 0.25 0.16666667
0.4330127 0.25 0.5
0.5 0 0.16666667
0.5 0 0.5
0.3 0.1 0.16666667
0.3 0.1 0.5
0.33333333 0 0.16666667
0.33333333 0 0.5
0.1 0.1 -0.16666667
0.20833333 0.125 -0.16666667
0.25 0.25 -0.16666667
0.125 0.25 -0.16666667
0.16666667 0 -0.16666667
0.1 0.4 -0.16666667
0.25 0.34150635 -0.16666667
0.25 0.4330127 -0.16666667
0.35980762 0.25 -0.16666667
0.375 0.125 -0.16666667
0.4330127 0.25 -0.16666667
0.5 0 -0.16666667
0.3 0.1 -0.16666667
0.33333333 0 -0.16666667
0.1 0.1 -0.5
0.20833333 0.125 -0.5
0.25 0.25 -0.5
0.125 0.25 -0.5
0.16666667 0 -0.5
0.1 0.4 -0.5
0.25 0.34150635 -0.5
0.25 0.4330127 -0.5
0.35980762 0.25 -0.5
0.375 0.125 -0.5
0.4330127 0.25 -0.5
0.5 0 -0.5
0.3 0.1 -0.5
0.33333333 0 -0.5
0.4 -0.1 0.16666667
0.29166667 -0.125 0.16666667
0.25 -0.25 0.16666667
0.34150635 -0.25 0.16666667
0.4 -0.1 0.5
0.29166667 -0.125 0.5
0.25 -0.25 0.5
0.34150635 -0.25 0.5
0.4330127 -0.25 0.16666667
0.4330127 -0.25 0.5
0.25 -0.35980762 0.16666667
0.125 -0.375 0.16666667
0.25 -0.35980762 0.5
0.125 -0.375 0.5
0.25 -0.4330127 0.16666667
0.25 -0.4330127 0.5
0 -0.5 0.16666667
0 -0.5 0.5
0.1 -0.25 0.16666667
0.125 -0.125 0.16666667
0.1 -0.25 0.5
0.125 -0.125 0.5
0 -0.25 0.16666667
0 -0.25 0.5
0.2 -0.1 0.16666667
0.2 -0.1 0.5
0.4 -0.1 -0.16666667
0.29166667 -0.125 -0.16666667
0.25 -0.25 -0.16666667
0.34150635 -0.25 -0.16666667
0.4330127 -0.25 -0.16666667
0.25 -0.35980762 -0.16666667
0.125 -0.375 -0.16666667
0.25 -0.4330127 -0.16666667
0 -0.5 -0.16666667
0.1 -0.25 -0.16666667
0.125 -0.125 -0.16666667
0 -0.25 -0.16666667
0.2 -0.1 -0.16666667
0.4 -0.1 -0.5
0.29166667 -0.125 -0.5
0.25 -0.25 -0.5
0.34150635 -0.25 -0.5
0.4330127 -0.25 -0.5
0.25 -0.35980762 -0.5
0.125 -0.375 -0.5
0.25 -0.4330127 -0.5
0 -0.5 -0.5
0.1 -0.25 -0.5
0.125 -0.125 -0.5
0 -0.25 -0.5
0.2 -0.1 -0.5
-0.1 -0.1 0.16666667
-0.20833333 -0.125 0.16666667
-0.25 -0.25 0.16666667
-0.125 -0.25 0.16666667
-0.1 -0.1 0.5
-0.20833333 -0.125 0.5
-0.25 -0.25 0.5
-0.125 -0.25 0.5
-0.1 -0.4 0.16666667
-0.25 -0.34150635 0.16666667
-0.1 -0.4 0.5
-0.25 -0.34150635 0.5
-0.25 -0.4330127 0.16666667
-0.25 -0.4330127 0.5
-0.35980762 -0.25 0.16666667
-0.375 -0.125 0.16666667
-0.35980762 -0.25 0.5
-0.375 -0.125 0.5
-0.4330127 -0.25 0.16666667
-0.4330127 -0.25 0.5
-0.3 -0.1 0.16666667
-0.3 -0.1 0.5
-0.1 -0.1 -0.16666667
-0.20833333 -0.125 -0.16666667
-0.25 -0.25 -0.16666667
-0.125 -0.25 -0.16666667
-0.1 -0.4 -0.16666667
-0.25 -0.34150635 -0.16666667
-0.25 -0.4330127 -0.16666667
-0.35980762 -0.25 -0.16666667
-0.375 -0.125 -0.16666667
-0.4330127 -0.25 -0.16666667
-0.3 -0.1 -0.16666667
-0.1 -0.1 -0.5
-0.20833333 -0.125 -0.5
-0.25 -0.25 -0.5
-0.125 -0.25 -0.5
-0.1 -0.4 -0.5
-0.25 -0.34150635 -0.5
-0.25 -0.4330127 -0.5
-0.35980762 -0.25 -0.5
-0.375 -0.125 -0.5
-0.4330127 -0.25 -0.5
-0.3 -0.1 -0.5
0.66666667 0 0.16666667
0.66666667 0 0.5
0.57735027 0.33333333 0.16666667
0.57735027 0.33333333 0.5
0.83333333 0 0.16666667
0.83333333 0 0.5
0.72168784 0.41666667 0.16666667
0.72168784 0.41666667 0.5
1 0 0.16666667
1 0 0.5
0.8660254 0.5 0.16666667
0.8660254 0.5 0.5
0.66666667 0 -0.16666667
0.57735027 0.33333333 -0.16666667
0.83333333 0 -0.16666667
0.72168784 0.41666667 -0.16666667
1 0 -0.16666667
0.8660254 0.5 -0.16666667
0.66666667 0 -0.5
0.57735027 0.33333333 -0.5
0.83333333 0 -0.5
0.72168784 0.41666667 -0.5
1 0 -0.5
0.8660254 0.5 -0.5
0.33333333 0.57735027 0.16666667
0.33333333 0.57735027 0.5
0.41666667 0.72168784 0.16666667
0.41666667 0.72168784 0.5
0.5 0.8660254 0.16666667
0.5 0.8660254 0.5
0.33333333 0.57735027 -0.16666667
0.41666667 0.72168784 -0.16666667
0.5 0.8660254 -0.16666667
0.33333333 0.57735027 -0.5
0.41666667 0.72168784 -0.5
0.5 0.8660254 -0.5
0 0.66666667 0.16666667
0 0.66666667 0.5
0 0.83333333 0.16666667
0 0.83333333 0.5
0 1 0.16666667
0 1 0.5
0 0.66666667 -0.16666667
0 0.83333333 -0.16666667
0 1 -0.16666667
0 0.66666667 -0.5
0 0.83333333 -0.5
0 1 -0.5
0.57735027 -0.33333333 0.16666667
0.57735027 -0.33333333 0.5
0.72168784 -0.41666667 0.16666667
0.72168784 -0.41666667 0.5
0.8660254 -0.5 0.16666667
0.8660254 -0.5 0.5
0.57735027 -0.33333333 -0.16666667
0.72168784 -0.41666667 -0.16666667
0.8660254 -0.5 -0.16666667
0.57735027 -0.33333333 -0.5
0.72168784 -0.41666667 -0.5
0.8660254 -0.5 -0.5
0.33333333 -0.57735027 0.16666667
0.33333333 -0.57735027 0.5
0.41666667 -0.72168784 0.16666667
0.41666667 -0.72168784 0.5
0.5 -0.8660254 0.16666667
0.5 -0.8660254 0.5
0.33333333 -0.57735027 -0.16666667
0.41666667 -0.72168784 -0.16666667
0.5 -0.8660254 -0.16666667
0.33333333 -0.57735027 -0.5
0.41666667 -0.72168784 -0.5
0.5 -0.8660254 -0.5
0 -0.66666667 0.16666667
0 -0.66666667 0.5
0 -0.83333333 0.16666667
0 -0.83333333 0.5
0 -1 0.16666667
0 -1 0.5
0 -0.66666667 -0.16666667
0 -0.83333333 -0.16666667
0 -1 -0.16666667
0 -0.66666667 -0.5
0 -0.83333333 -0.5
0 -1 -0.5
-0.41666667 -0.72168784 -0.5
-0.5 -0.8660254 -0.5
-0.5 -0.8660254 -0.16666667
-0.41666667 -0.72168784 -0.16666667
-0.33333333 -0.57735027 -0.5
-0.33333333 -0.57735027 -0.16666667
-0.5 -0.8660254 0.16666667
-0.41666667 -0.72168784 0.16666667
-0.33333333 -0.57735027 0.16666667
-0.5 -0.8660254 0.5
-0.41666667 -0.72168784 0.5
-0.33333333 -0.57735027 0.5
-0.72168784 -0.41666667 -0.5
-0.8660254 -0.5 -0.5
-0.8660254 -0.5 -0.16666667
-0.72168784 -0.41666667 -0.16666667
-0.57735027 -0.33333333 -0.5
-0.57735027 -0.33333333 -0.16666667
-0.8660254 -0.5 0.16666667
-0.72168784 -0.41666667 0.16666667
-0.57735027 -0.33333333 0.16666667
-0.8660254 -0.5 0.5
-0.72168784 -0.41666667 0.5
-0.57735027 -0.33333333 0.5
-0.83333333 0 -0.5
-1 0 -0.5
-1 0 -0.16666667
-0.83333333 0 -0.16666667
-0.66666667 0 -0.5
-0.66666667 0 -0.16666667
-1 0 0.16666667
-0.83333333 0 0.16666667
-0.66666667 0 0.16666667
-1 0 0.5
-0.83333333 0 0.5
-0.66666667 0 0.5
-0.57735027 0.33333333 0.16666667
-0.57735027 0.33333333 0.5
-0.72168784 0.41666667 0.16666667
-0.72168784 0.41666667 0.5
-0.8660254 0.5 0.16666667
-0.8660254 0.5 0.5
-0.57735027 0.33333333 -0.16666667
-0.72168784 0.41666667 -0.16666667
-0.8660254 0.5 -0.16666667
-0.57735027 0.33333333 -0.5
-0.72168784 0.41666667 -0.5
-0.8660254 0.5 -0.5
-0.33333333 0.57735027 0.16666667
-0.33333333 0.57735027 0.5
-0.41666667 0.72168784 0.16666667
-0.41666667 0.72168784 0.5
-0.5 0.8660254 0.16666667
-0.5 0.8660254 0.5
-0.33333333 0.57735027 -0.16666667
-0.41666667 0.72168784 -0.16666667
-0.5 0.8660254 -0.16666667
-0.33333333 0.57735027 -0.5
-0.41666667 0.72168784 -0.5
-0.5 0.8660254 -0.5
CELLS 252 2268
8 0 1 2 3 4 5 6 7
8 8 9 1 0 10 11 5 4
8 12 8 0 3 13 10 4 7
8 14 3 2 15 16 7 6 17
8 18 12 3 14 19 13 7 16
8 20 18 14 15 21 19 16 17
8 22 15 2 23 24 17 6 25
8 26 20 15 22 27 21 17 24
8 28 26 22 23 29 27 24 25
8 30 23 2 1 31 25 6 5
8 32 28 23 30 33 29 25 31
8 9 32 30 1 11 33 31 5
8 34 35 36 37 0 1 2 3
8 38 39 35 34 8 9 1 0
8 40 38 34 37 12 8 0 3
8 41 37 36 42 14 3 2 15
8 43 40 37 41 18 12 3 14
8 44 43 41 42 20 18 14 15
8 45 42 36 46 22 15 2 23
8 47 44 42 45 26 20 15 22
8 48 47 45 46 28 26 22 23
8 49 46 36 35 30 23 2 1
8 50 48 46 49 32 28 23 30
8 39 50 49 35 9 32 30 1
8 51 52 53 54 34 35 36 37
8 55 56 52 51 38 39 35 34
8 57 55 51 54 40 38 34 37
8 58 54 53 59 41 37 36 42
8 60 57 54 58 43 40 37 41
8 61 60 58 59 44 43 41 42
8 62 59 53 63 45 42 36 46
8 64 61 59 62 47 44 42 45
8 65 64 62 63 48 47 45 46
8 66 63 53 52 49 46 36 35
8 67 65 63 66 50 48 46 49
8 56 67 66 52 39 50 49 35
8 68 69 70 71 72 73 74 75
8 28 76 69 68 29 77 73 72
8 26 28 68 71 27 29 72 75
8 78 71 70 79 80 75 74 81
8 20 26 71 78 21 27 75 80
8 82 20 78 79 83 21 80 81
8 84 79 70 85 86 81 74 87
8 88 82 79 84 89 83 81 86
8 90 88 84 85 91 89 86 87
8 92 85 70 69 93 87 74 73
8 94 90 85 92 95 91 87 93
8 76 94 92 69 77 95 93 73
8 96 97 98 99 68 69 70 71
8 48 100 97 96 28 76 69 68
8 47 48 96 99 26 28 68 71
8 101 99 98 102 78 71 70 79
8 44 47 99 101 20 26 71 78
8 103 44 101 102 82 20 78 79
8 104 102 98 105 84 79 70 85
8 106 103 102 104 88 82 79 84
8 107 106 104 105 90 88 84 85
8 108 105 98 97 92 85 70 69
8 109 107 105 108 94 90 85 92
8 100 109 108 97 76 94 92 69
8 110 111 112 113 96 97 98 99
8 65 114 111 110 48 100 97 96
8 64 65 110 113 47 48 96 99
8 115 113 112 116 101 99 98 102
8 61 64 113 115 44 47 99 101
8 117 61 115 116 103 44 101 102
8 118 116 112 119 104 102 98 105
8 120 117 116 118 106 103 102 104
8 121 120 118 119 107 106 104 105
8 122 119 112 111 108 105 98 97
8 123 121 119 122 109 107 105 108
8 114 123 122 111 100 109 108 97
8 124 125 126 127 128 129 130 131
8 90 94 125 124 91 95 129 128
8 132 90 124 127 133 91 128 131
8 134 127 126 135 136 131 130 137
8 138 132 127 134 139 133 131 136
8 140 138 134 135 141 139 136 137
8 142 135 126 143 144 137 130 145
8 146 140 135 142 147 141 137 144
8 28 146 142 143 29 147 144 145
8 148 143 126 125 149 145 130 129
8 76 28 143 148 77 29 145 149
8 94 76 148 125 95 77 149 129
8 150 151 152 153 124 125 126 127
8 107 109 151 150 90 94 125 124
8 154 107 150 153 132 90 124 127
8 155 153 152 156 134 127 126 135
8 157 154 153 155 138 132 127 134
8 158 157 155 156 140 138 134 135
8 159 156 152 160 142 135 126 143
8 161 158 156 159 146 140 135 142
8 48 161 159 160 28 146 142 143
8 162 160 152 151 148 143 126 125
8 100 48 160 162 76 28 143 148
8 109 100 162 151 94 76 148 125
8 163 164 165 166 150 151 152 153
8 121 123 164 163 107 109 151 150
8 167 121 163 166 154 107 150 153
8 168 166 165 169 155 153 152 156
8 170 167 166 168 157 154 153 155
8 171 170 168 169 158 157 155 156
8 172 169 165 173 159 156 152 160
8 174 171 169 172 161 158 156 159
8 65 174 172 173 48 161 159 160
8 175 173 165 164 162 160 152 151
8 114 65 173 175 100 48 160 162
8 123 114 175 164 109 100 162 151
8 176 177 178 179 180 181 182 183
8 28 32 177 176 29 33 181 180
8 146 28 176 179 147 29 180 183
8 184 179 178 185 186 183 182 187
8 140 146 179 184 141 147 183 186
8 188 140 184 185 189 141 186 187
8 190 185 178 191 192 187 182 193
8 194 188 185 190 195 189 187 192
8 8 194 190 191 10 195 192 193
8 196 191 178 177 197 193 182 181
8 9 8 191 196 11 10 193 197
8 32 9 196 177 33 11 197 181
8 198 199 200 201 176 177 178 179
8 48 50 199 198 28 32 177 176
8 161 48 198 201 146 28 176 179
8 202 201 200 203 184 179 178 185
8 158 161 201 202 140 146 179 184
8 204 158 202 203 188 140 184 185
8 205 203 200 206 190 185 178 191
8 207 204 203 205 194 188 185 190
8 38 207 205 206 8 194 190 191
8 208 206 200 199 196 191 178 177
8 39 38 206 208 9 8 191 196
8 50 39 208 199 32 9 196 177
8 209 210 211 212 198 199 200 201
8 65 67 210 209 48 50 199 198
8 174 65 209 212 161 48 198 201
8 213 212 211 214 202 201 200 203
8 171 174 212 213 158 161 201 202
8 215 171 213 214 204 158 202 203
8 216 214 211 217 205 203 200 206
8 218 215 214 216 207 204 203 205
8 55 218 216 217 38 207 205 206
8 219 217 211 210 208 206 200 199
8 56 55 217 219 39 38 206 208
8 67 56 219 210 50 39 208 199
8 220 90 91 221 222 88 89 223
8 224 220 221 225 226 222 223 227
8 228 224 225 229 230 226 227 231
8 232 107 90 220 233 106 88 222
8 234 232 220 224 235 233 222 226
8 236 234 224 228 237 235 226 230
8 238 121 107 232 239 120 106 233
8 240 238 232 234 241 239 233 235
8 242 240 234 236 243 241 235 237
8 222 88 89 223 244 82 83 245
8 226 222 223 227 246 244 245 247
8 230 226 227 231 248 246 247 249
8 233 106 88 222 250 103 82 244
8 235 233 222 226 251 250 244 246
8 237 235 226 230 252 251 246 248
8 239 120 106 233 253 117 103 250
8 241 239 233 235 254 253 250 251
8 243 241 235 237 255 254 251 252
8 244 82 83 245 256 20 21 257
8 246 244 245 247 258 256 257 259
8 248 246 247 249 260 258 259 261
8 250 103 82 244 262 44 20 256
8 251 250 244 246 263 262 256 258
8 252 251 246 248 264 263 258 260
8 253 117 103 250 265 61 44 262
8 254 253 250 251 266 265 262 263
8 255 254 251 252 267 266 263 264
8 268 132 133 269 220 90 91 221
8 270 268 269 271 224 220 221 225
8 272 270 271 273 228 224 225 229
8 274 154 132 268 232 107 90 220
8 275 274 268 270 234 232 220 224
8 276 275 270 272 236 234 224 228
8 277 167 154 274 238 121 107 232
8 278 277 274 275 240 238 232 234
8 279 278 275 276 242 240 234 236
8 280 138 139 281 268 132 133 269
8 282 280 281 283 270 268 269 271
8 284 282 283 285 272 270 271 273
8 286 157 138 280 274 154 132 268
8 287 286 280 282 275 274 268 270
8 288 287 282 284 276 275 270 272
8 289 170 157 286 277 167 154 274
8 290 289 286 287 278 277 274 275
8 291 290 287 288 279 278 275 276
8 292 140 141 293 280 138 139 281
8 294 292 293 295 282 280 281 283
8 296 294 295 297 284 282 283 285
8 298 158 140 292 286 157 138 280
8 299 298 292 294 287 286 280 282
8 300 299 294 296 288 287 282 284
8 301 171 158 298 289 170 157 286
8 302 301 298 299 290 289 286 287
8 303 302 299 300 291 290 287 288
8 302 303 300 299 304 305 306 307
8 301 302 299 298 308 304 307 309
8 171 301 298 158 215 308 309 204
8 299 300 296 294 307 306 310 311
8 298 299 294 292 309 307 311 312
8 158 298 292 140 204 309 312 188
8 294 296 297 295 311 310 313 314
8 292 294 295 293 312 311 314 315
8 140 292 293 141 188 312 315 189
8 304 305 306 307 316 317 318 319
8 308 304 307 309 320 316 319 321
8 215 308 309 204 218 320 321 207
8 307 306 310 311 319 318 322 323
8 309 307 311 312 321 319 323 324
8 204 309 312 188 207 321 324 194
8 311 310 313 314 323 322 325 326
8 312 311 314 315 324 323 326 327
8 188 312 315 189 194 324 327 195
8 316 317 318 319 328 329 330 331
8 320 316 319 321 332 328 331 333
8 218 320 321 207 55 332 333 38
8 319 318 322 323 331 330 334 335
8 321 319 323 324 333 331 335 336
8 207 321 324 194 38 333 336 8
8 323 322 325 326 335 334 337 338
8 324 323 326 327 336 335 338 339
8 194 324 327 195 8 336 339 10
8 8 336 339 10 12 340 341 13
8 336 335 338 339 340 342 343 341
8 335 334 337 338 342 344 345 343
8 38 333 336 8 40 346 340 12
8 333 331 335 336 346 347 342 340
8 331 330 334 335 347 348 344 342
8 55 332 333 38 57 349 346 40
8 332 328 331 333 349 350 347 346
8 328 329 330 331 350 351 348 347
8 12 340 341 13 18 352 353 19
8 340 342 343 341 352 354 355 353
8 342 344 345 343 354 356 357 355
8 40 346 340 12 43 358 352 18
8 346 347 342 340 358 359 354 352
8 347 348 344 342 359 360 356 354
8 57 349 346 40 60 361 358 43
8 349 350 347 346 361 362 359 358
8 350 351 348 347 362 363 360 359
8 18 352 353 19 20 256 257 21
8 352 354 355 353 256 258 259 257
8 354 356 357 355 258 260 261 259
8 43 358 352 18 44 262 256 20
8 358 359 354 352 262 263 258 256
8 359 360 356 354 263 264 260 258
8 60 361 358 43 61 265 262 44
8 361 362 359 358 265 266 263 262
8 362 363 360 359 266 267 264 263
CELL_TYPES 252
12
12
12
12
12
12
12
12
12
12
12
12
12
12
12
12
12
12
12
12
12
12
12
12
12
12
12
12
12
12
12
12
12
12
12
12
12
12
12
12
12
12
12
12
12
12
12
12
12
12
12
12
12
12
12
12
12
12
12
12
12
12
12
12
12
12
12
12
12
12
12
12
12
12
12
12
12
12
12
12
12
12
12
12
12
12
12
12
12
12
12
12
12
12
12
12
12
12
12
12
12
12
12
12
12
12
12
12
12
12
12
12
12
12
12
12
12
12
12
12
12
12
12
12
12
12
12
12
12
12
12
12
12
12
12
12
12
12
12
12
12
12
12
12
12
12
12
12
12
12
12
12
12
12
12
12
12
12
12
12
12
12
12
12
12
12
12
12
12
12
12
12
12
12
12
12
12
12
12
12
12
12
12
12
12
12
12
12
12
12
12
12
12
12
12
12
12
12
12
12
12
12
12
12
12
12
12
12
12
12
12
12
12
12
12
12
12
12
12
12
12
12
12
12
12
12
12
12
12
12
12
12
12
12
12
12
12
12
12
12
12
12
12
12
12
12
12
12
12
12
12
12
CELL_DATA 252
SCALARS material int
LOOKUP_TABLE default
1
1
1
1
1
1
1
1
1
1
1
1
1
1
1
1
1
1
1
1
1
1
1
1
1
1
1
1
1
1
1
1
1
1
1
1
1
1
1
1
1
1
1
1
1
1
1
1
1
1
1
1
1
1
1
1
1
1
1
1
1
1
1
1
1
1
1
1
1
1
1
1
1
1
1
1
1
1
1
1
1
1
1
1
1
1
1
1
1
1
1
1
1
1
1
1
1
1
1
1
1
1
1
1
1
1
1
1
1
1
1
1
1
1
1
1
1
1
1
1
1
1
1
1
1
1
1
1
1
1
1
1
1
1
1
1
1
1
1
1
1
1
1
1
2
2
2
2
2
2
2
2
2
2
2
2
2
2
2
2
2
2
2
2
2
2
2
2
2
2
2
2
2
2
2
2
2
2
2
2
2
2
2
2
2
2
2
2
2
2
2
2
2
2
2
2
2
2
2
2
2
2
2
2
2
2
2
2
2
2
2
2
2
2
2
2
2
2
2
2
2
2
2
2
2
2
2
2
2
2
2
2
2
2
2
2
2
2
2
2
2
2
2
2
2
2
2
2
2
2
2
2
